/*--------------------------------*- C++ -*----------------------------------*\
| =========                 |                                                 |
| \\      /  F ield         | OpenFOAM: The Open Source CFD Toolbox           |
|  \\    /   O peration     | Version:  5                                     |
|   \\  /    A nd           | Web:      www.OpenFOAM.org                      |
|    \\/     M anipulation  |                                                 |
\*---------------------------------------------------------------------------*/
FoamFile
{
    version     2.0;
    format      ascii;
    class       volScalarField;
    location    "0";
    object      nut;
}
// * * * * * * * * * * * * * * * * * * * * * * * * * * * * * * * * * * * * * //

dimensions      [0 2 -1 0 0 0 0];

internalField   uniform 0.14;

boundaryField
{
minX
{
type freestream;
freestreamValue uniform 0.14;
}
maxX
{
type freestream;
freestreamValue uniform 0.14;
}
minY
{
type freestream;
freestreamValue uniform 0.14;
}
maxY
{
type freestream;
freestreamValue uniform 0.14;
}
minZ
{
type freestream;
freestreamValue uniform 0.14;
}
maxZ
{
type freestream;
freestreamValue uniform 0.14;
}
wing
{
type nutUWallFunction;
value uniform 0;
}
}


// ************************************************************************* //
