/*--------------------------------*- C++ -*----------------------------------*\
| =========                 |                                                 |
| \\      /  F ield         | OpenFOAM: The Open Source CFD Toolbox           |
|  \\    /   O peration     | Version:  5.x                                   |
|   \\  /    A nd           | Web:      www.OpenFOAM.org                      |
|    \\/     M anipulation  |                                                 |
\*---------------------------------------------------------------------------*/
FoamFile
{
    version     2.0;
    format      ascii;
    class       volScalarField;
    location    "0";
    object      p;
}
// * * * * * * * * * * * * * * * * * * * * * * * * * * * * * * * * * * * * * //

dimensions      [0 2 -2 0 0 0 0];

internalField   uniform 101325;

boundaryField
{
minX
{
type freestreamPressure;
}
maxX
{
type freestreamPressure;
}
minY
{
type freestreamPressure;
}
maxY
{
type freestreamPressure;
}
minZ
{
type freestreamPressure;
}
maxZ
{
type freestreamPressure;
}
wing
{
type zeroGradient;
}
}


// ************************************************************************* //
