/*--------------------------------*- C++ -*----------------------------------*\
| =========                 |                                                 |
| \\      /  F ield         | OpenFOAM: The Open Source CFD Toolbox           |
|  \\    /   O peration     | Version:  5.x                                   |
|   \\  /    A nd           | Web:      www.OpenFOAM.org                      |
|    \\/     M anipulation  |                                                 |
\*---------------------------------------------------------------------------*/
FoamFile
{
    version     2.0;
    format      ascii;
    class       volVectorField;
    location    "0";
    object      U;
}
// * * * * * * * * * * * * * * * * * * * * * * * * * * * * * * * * * * * * * //

dimensions      [0 1 -1 0 0 0 0];

internalField   uniform (60 0 0);

boundaryField
{
minX
{
type freestream;
freestreamValue uniform (60 0 0);
}
maxX
{
type freestream;
freestreamValue uniform (60 0 0);
}
minY
{
type freestream;
freestreamValue uniform (60 0 0);
}
maxY
{
type freestream;
freestreamValue uniform (60 0 0);
}
minZ
{
type freestream;
freestreamValue uniform (60 0 0);
}
maxZ
{
type freestream;
freestreamValue uniform (60 0 0);
}
wing
{
type fixedValue;
value uniform (0 0 0);
}
}


// ************************************************************************* //
